 Gaussian 09, Revision E.01,
 Gaussian 09:  ES64L-G09RevE.01 30-Nov-2015

 -------------------------------------------
 # opt=(tight,z-matrix) freq mp2/aug-cc-pvdz
 -------------------------------------------

 ----------
 WaterOptGV
 ----------
 Symbolic Z-matrix:
 Charge =  0 Multiplicity = 1

 SCF Done:  E(RHF) =  -76.0412566939     A.U. after   10 cycles
 E2 =    -0.2195839814D+00 EUMP2 =    -0.76260840675261D+02
 SCF Done:  E(RHF) =  -76.0408203082     A.U. after    8 cycles
 E2 =    -0.2200876790D+00 EUMP2 =    -0.76260907987111D+02
 SCF Done:  E(RHF) =  -76.0407607396     A.U. after    8 cycles
 E2 =    -0.2201489608D+00 EUMP2 =    -0.76260909700358D+02
 SCF Done:  E(RHF) =  -76.0407613915     A.U. after    6 cycles
 E2 =    -0.2201483727D+00 EUMP2 =    -0.76260909764137D+02
 Optimization completed.
    -- Stationary point found.
 Normal termination of Gaussian 09 at Fri Nov  8 14:21:55 2019.

 ----------------------------------------------------------------------
 #N Geom=AllCheck Guess=TCheck SCRF=Check GenChk RMP2(FC)/Aug-CC-pVDZ F
 req
 ----------------------------------------------------------------------

 Structure from the checkpoint file:  "h2oFreqGV.chk"
 ----------
 WaterOptGV
 ----------
 Charge =  0 Multiplicity = 1

                         Standard orientation:
 ---------------------------------------------------------------------
 Center     Atomic      Atomic             Coordinates (Angstroms)
 Number     Number       Type             X           Y           Z
 ---------------------------------------------------------------------
      1          8           0       -0.000000    0.000000    0.119104
      2          1           0        0.000000    0.760510   -0.476416
      3          1           0       -0.000000   -0.760510   -0.476416
 ---------------------------------------------------------------------

 SCF Done:  E(RHF) =  -76.0407613915     A.U. after    1 cycles
 E2 =    -0.2201483735D+00 EUMP2 =    -0.76260909764948D+02
 E2 =    -0.2201483735D+00 EUMP2 =    -0.76260909764948D+02

 The electronic state is 1-A1.
 Alpha  occ. eigenvalues --  -20.57901  -1.35263  -0.71331  -0.58523  -0.50891
 Alpha virt. eigenvalues --    0.03523   0.05794   0.17410   0.19718   0.22209
 Alpha virt. eigenvalues --    0.23191   0.28795   0.33127   0.38552   0.40158
 Alpha virt. eigenvalues --    0.43156   0.53856   0.64620   0.65791   0.80618

 Mulliken charges:
               1
     1  O   -0.315668
     2  H    0.157834
     3  H    0.157834
 Sum of Mulliken charges =  -0.00000

 Dipole moment (field-independent basis, Debye):
    X=             -0.0000    Y=             -0.0000    Z=             -2.0160  Tot=              2.0160
 Quadrupole moment (field-independent basis, Debye-Ang):
   XX=             -7.6087   YY=             -4.2868   ZZ=             -6.2492
   XY=              0.0000   XZ=              0.0000   YZ=             -0.0000

  Exact polarizability:   8.775   0.000   9.957   0.000  -0.000   9.173
 Approx polarizability:   5.939   0.000   7.868   0.000   0.000   7.098

                      1                      2                      3
                     A1                     A1                     B2
 Frequencies --   1622.2946              3803.2829              3937.5164
 Red. masses --      1.0823                 1.0455                 1.0812
 Frc consts  --      1.6783                 8.9101                 9.8767
 IR Inten    --     67.4578                 4.1428                67.0243

 - Thermochemistry -
 -------------------
 Temperature   298.150 Kelvin.  Pressure   1.00000 Atm.
 Atom     1 has atomic number  8 and mass  15.99491

 Molecular mass:    18.01056 amu.
 Principal axes and moments of inertia in atomic units:
                           1         2         3
     Eigenvalues --     2.26705   4.16316   6.43021
           X            0.00000   0.00000   1.00000
           Y            1.00000   0.00000  -0.00000
           Z           -0.00000   1.00000  -0.00000
 This molecule is an asymmetric top.
 Rotational symmetry number  2.
 Rotational temperatures (Kelvin)     38.20558    20.80482    13.46983
 Rotational constants (GHZ):         796.07603   433.50267   280.66612
 Zero-point vibrational energy      56003.7 (Joules/Mol)
                                   13.38521 (Kcal/Mol)
 Vibrational temperatures:   2334.12  5472.07  5665.20
          (Kelvin)

 Zero-point correction=                           0.021331 (Hartree/Particle)
 Thermal correction to Energy=                    0.024166
 Thermal correction to Enthalpy=                  0.025110
 Thermal correction to Gibbs Free Energy=         0.003672
 Sum of electronic and zero-point Energies=            -76.239579
 Sum of electronic and thermal Energies=               -76.236744
 Sum of electronic and thermal Enthalpies=             -76.235799
 Sum of electronic and thermal Free Energies=          -76.257237

                     E (Thermal)             CV                S
                      KCal/Mol        Cal/Mol-Kelvin    Cal/Mol-Kelvin
 Total                   15.165              6.010             45.120
 Electronic               0.000              0.000              0.000
 Translational            0.889              2.981             34.608
 Rotational               0.889              2.981             10.505
 Vibrational             13.387              0.049              0.007

 Optimization completed.
    -- Stationary point found.
 Normal termination of Gaussian 09 at Fri Nov  8 14:22:00 2019.
